      12
 i =    47000, time =    42000.000, E =      -576.0844944982
  O        -5.1711205580        7.6959325850        0.4233841729
  O        -3.1972365683        8.2117718711        7.6429762731
  O        -4.2005823840        2.3557813897        7.1314250983
  O        -5.4857206203        0.1047497651       -2.5687808253
  H        -5.6997094999        7.5450167900        1.2570947152
  H        -5.8731613363        7.4274389547       -0.2879445699
  H        -3.0593759093        8.1541283227        8.6467853181
  H        -3.9718385984        8.7865114658        7.5110920220
  H        -4.4547980258        3.2720387966        6.8869816729
  H        -3.3413041539        2.2342755202        6.7252872220
  H        -5.8684633461       -0.4591588281       -1.8722595664
  H        -5.1577700731        0.9394515403       -2.2586037791
